version 2
run General-52-20200811-20:42:55-10952
attr configname General
attr datetime 20200811-20:42:55
attr experiment General
attr inifile omnetpp.ini
attr iterationvars ""
attr iterationvarsf ""
attr measurement ""
attr network fcnetwork
attr processid 10952
attr repetition 52
attr replication #52
attr resultdir results
attr runnumber 52
attr seedset 52

vector 0 fcnetwork.node1 CountEchos ETV
vector 1 fcnetwork.node2 CountEchos ETV
vector 2 fcnetwork.node3 CountEchos ETV
vector 3 fcnetwork.node4 CountEchos ETV
0	13	1	0
0	38	2	0
0	75	3	0
0	118	4	1
0	170	5	1
0	204	6	1
0	244	7	1
0	272	8	1
0	297	9	0
0	319	10	0
1	14	1	0
1	39	2	0
1	76	3	0
1	119	4	0
1	171	5	2
1	205	6	0
1	245	7	1
1	273	8	0
1	298	9	0
1	320	10	0
2	15	1	0
2	40	2	0
2	77	3	1
2	120	4	1
2	172	5	5
2	206	6	1
2	246	7	3
2	274	8	0
2	299	9	0
2	321	10	0
3	16	1	0
3	41	2	0
3	78	3	1
3	121	4	0
3	173	5	0
3	207	6	1
3	247	7	0
3	275	8	0
3	300	9	0
3	322	10	1

