version 2
run General-68-20200811-20:42:55-10952
attr configname General
attr datetime 20200811-20:42:55
attr experiment General
attr inifile omnetpp.ini
attr iterationvars ""
attr iterationvarsf ""
attr measurement ""
attr network fcnetwork
attr processid 10952
attr repetition 68
attr replication #68
attr resultdir results
attr runnumber 68
attr seedset 68

vector 0 fcnetwork.node1 CountEchos ETV
vector 1 fcnetwork.node2 CountEchos ETV
vector 2 fcnetwork.node3 CountEchos ETV
vector 3 fcnetwork.node4 CountEchos ETV
0	13	1	0
0	32	2	0
0	66	3	1
0	106	4	0
0	146	5	1
0	177	6	0
0	220	7	1
0	242	8	0
0	267	9	0
0	298	10	1
1	14	1	0
1	33	2	1
1	67	3	1
1	107	4	1
1	147	5	0
1	178	6	1
1	221	7	0
1	243	8	0
1	268	9	1
1	299	10	0
2	15	1	0
2	34	2	0
2	68	3	0
2	108	4	0
2	148	5	0
2	179	6	0
2	222	7	0
2	244	8	1
2	269	9	0
2	300	10	1
3	16	1	0
3	35	2	0
3	69	3	0
3	109	4	0
3	149	5	1
3	180	6	2
3	223	7	1
3	245	8	0
3	270	9	0
3	301	10	0

