version 2
run General-0-20200811-20:48:19-15776
attr configname General
attr datetime 20200811-20:48:19
attr experiment General
attr inifile omnetpp.ini
attr iterationvars ""
attr iterationvarsf ""
attr measurement ""
attr network fcnetwork
attr processid 15776
attr repetition 0
attr replication #0
attr resultdir results
attr runnumber 0
attr seedset 0

vector 0 fcnetwork.node1 CountEchos ETV
vector 1 fcnetwork.node2 CountEchos ETV
vector 2 fcnetwork.node3 CountEchos ETV
vector 3 fcnetwork.node4 CountEchos ETV
0	13	1	0
0	41	2	1
0	72	3	0
0	112	4	0
0	140	5	1
0	162	6	0
0	196	7	1
0	230	8	0
0	264	9	0
0	310	10	0
1	14	1	0
1	42	2	1
1	73	3	2
1	113	4	1
1	141	5	0
1	163	6	0
1	197	7	0
1	231	8	0
1	265	9	0
1	311	10	0
2	15	1	0
2	43	2	1
2	74	3	0
2	114	4	0
2	142	5	0
2	164	6	0
2	198	7	0
2	232	8	0
2	266	9	0
2	312	10	0
3	16	1	0
3	44	2	0
3	75	3	1
3	115	4	1
3	143	5	0
3	165	6	0
3	199	7	0
3	233	8	1
3	267	9	0
3	313	10	0

