version 2
run General-58-20200811-20:42:55-10952
attr configname General
attr datetime 20200811-20:42:55
attr experiment General
attr inifile omnetpp.ini
attr iterationvars ""
attr iterationvarsf ""
attr measurement ""
attr network fcnetwork
attr processid 10952
attr repetition 58
attr replication #58
attr resultdir results
attr runnumber 58
attr seedset 58

vector 0 fcnetwork.node1 CountEchos ETV
vector 1 fcnetwork.node2 CountEchos ETV
vector 2 fcnetwork.node3 CountEchos ETV
vector 3 fcnetwork.node4 CountEchos ETV
0	13	1	0
0	41	2	0
0	78	3	1
0	112	4	0
0	140	5	1
0	180	6	1
0	226	7	2
0	269	8	2
0	309	9	0
0	358	10	0
1	14	1	0
1	42	2	1
1	79	3	1
1	113	4	1
1	141	5	0
1	181	6	0
1	227	7	0
1	270	8	0
1	310	9	1
1	359	10	3
2	15	1	0
2	43	2	1
2	80	3	0
2	114	4	1
2	142	5	1
2	182	6	0
2	228	7	0
2	271	8	1
2	311	9	0
2	360	10	1
3	16	1	0
3	44	2	0
3	81	3	0
3	115	4	0
3	143	5	0
3	183	6	1
3	229	7	0
3	272	8	1
3	312	9	0
3	361	10	1

