version 2
run General-80-20200811-20:42:55-10952
attr configname General
attr datetime 20200811-20:42:55
attr experiment General
attr inifile omnetpp.ini
attr iterationvars ""
attr iterationvarsf ""
attr measurement ""
attr network fcnetwork
attr processid 10952
attr repetition 80
attr replication #80
attr resultdir results
attr runnumber 80
attr seedset 80

vector 0 fcnetwork.node1 CountEchos ETV
vector 1 fcnetwork.node2 CountEchos ETV
vector 2 fcnetwork.node3 CountEchos ETV
vector 3 fcnetwork.node4 CountEchos ETV
0	13	1	0
0	41	2	0
0	81	3	0
0	127	4	0
0	176	5	1
0	231	6	2
0	277	7	0
0	320	8	0
0	363	9	0
0	391	10	0
1	14	1	0
1	42	2	0
1	82	3	0
1	128	4	0
1	177	5	1
1	232	6	0
1	278	7	0
1	321	8	0
1	364	9	2
1	392	10	1
2	15	1	0
2	43	2	1
2	83	3	0
2	129	4	0
2	178	5	1
2	233	6	1
2	279	7	1
2	322	8	2
2	365	9	2
2	393	10	0
3	16	1	0
3	44	2	0
3	84	3	0
3	130	4	3
3	179	5	1
3	234	6	1
3	280	7	1
3	323	8	0
3	366	9	1
3	394	10	0

