version 2
run General-37-20200811-20:42:54-10952
attr configname General
attr datetime 20200811-20:42:54
attr experiment General
attr inifile omnetpp.ini
attr iterationvars ""
attr iterationvarsf ""
attr measurement ""
attr network fcnetwork
attr processid 10952
attr repetition 37
attr replication #37
attr resultdir results
attr runnumber 37
attr seedset 37

vector 0 fcnetwork.node1 CountEchos ETV
vector 1 fcnetwork.node2 CountEchos ETV
vector 2 fcnetwork.node3 CountEchos ETV
vector 3 fcnetwork.node4 CountEchos ETV
0	13	1	0
0	38	2	0
0	72	3	0
0	112	4	0
0	155	5	1
0	192	6	1
0	226	7	0
0	257	8	0
0	285	9	1
0	322	10	0
1	14	1	0
1	39	2	0
1	73	3	0
1	113	4	0
1	156	5	1
1	193	6	0
1	227	7	0
1	258	8	0
1	286	9	0
1	323	10	0
2	15	1	0
2	40	2	0
2	74	3	1
2	114	4	2
2	157	5	0
2	194	6	0
2	228	7	1
2	259	8	2
2	287	9	0
2	324	10	1
3	16	1	0
3	41	2	0
3	75	3	1
3	115	4	1
3	158	5	0
3	195	6	0
3	229	7	0
3	260	8	0
3	288	9	0
3	325	10	0

