version 2
run General-6-20200811-20:42:54-10952
attr configname General
attr datetime 20200811-20:42:54
attr experiment General
attr inifile omnetpp.ini
attr iterationvars ""
attr iterationvarsf ""
attr measurement ""
attr network fcnetwork
attr processid 10952
attr repetition 6
attr replication #6
attr resultdir results
attr runnumber 6
attr seedset 6

vector 0 fcnetwork.node1 CountEchos ETV
vector 1 fcnetwork.node2 CountEchos ETV
vector 2 fcnetwork.node3 CountEchos ETV
vector 3 fcnetwork.node4 CountEchos ETV
0	13	1	0
0	41	2	0
0	72	3	0
0	118	4	0
0	173	5	0
0	213	6	0
0	247	7	1
0	284	8	0
0	321	9	0
0	370	10	0
1	14	1	0
1	42	2	1
1	73	3	0
1	119	4	0
1	174	5	1
1	214	6	1
1	248	7	2
1	285	8	1
1	322	9	1
1	371	10	1
2	15	1	0
2	43	2	0
2	74	3	0
2	120	4	4
2	175	5	2
2	215	6	0
2	249	7	0
2	286	8	0
2	323	9	0
2	372	10	1
3	16	1	0
3	44	2	1
3	75	3	1
3	121	4	2
3	176	5	1
3	216	6	0
3	250	7	0
3	287	8	1
3	324	9	0
3	373	10	0

