version 2
run General-11-20200811-20:42:54-10952
attr configname General
attr datetime 20200811-20:42:54
attr experiment General
attr inifile omnetpp.ini
attr iterationvars ""
attr iterationvarsf ""
attr measurement ""
attr network fcnetwork
attr processid 10952
attr repetition 11
attr replication #11
attr resultdir results
attr runnumber 11
attr seedset 11

vector 0 fcnetwork.node1 CountEchos ETV
vector 1 fcnetwork.node2 CountEchos ETV
vector 2 fcnetwork.node3 CountEchos ETV
vector 3 fcnetwork.node4 CountEchos ETV
0	13	1	0
0	35	2	0
0	78	3	2
0	121	4	0
0	167	5	1
0	225	6	0
0	277	7	0
0	320	8	1
0	366	9	1
0	409	10	0
1	14	1	0
1	36	2	0
1	79	3	1
1	122	4	0
1	168	5	0
1	226	6	1
1	278	7	0
1	321	8	0
1	367	9	0
1	410	10	1
2	15	1	0
2	37	2	2
2	80	3	1
2	123	4	1
2	169	5	2
2	227	6	0
2	279	7	4
2	322	8	2
2	368	9	2
2	411	10	1
3	16	1	0
3	38	2	0
3	81	3	0
3	124	4	0
3	170	5	0
3	228	6	0
3	280	7	0
3	323	8	0
3	369	9	0
3	412	10	1

