version 2
run General-81-20200811-20:42:55-10952
attr configname General
attr datetime 20200811-20:42:55
attr experiment General
attr inifile omnetpp.ini
attr iterationvars ""
attr iterationvarsf ""
attr measurement ""
attr network fcnetwork
attr processid 10952
attr repetition 81
attr replication #81
attr resultdir results
attr runnumber 81
attr seedset 81

vector 0 fcnetwork.node1 CountEchos ETV
vector 1 fcnetwork.node2 CountEchos ETV
vector 2 fcnetwork.node3 CountEchos ETV
vector 3 fcnetwork.node4 CountEchos ETV
0	13	1	0
0	44	2	0
0	81	3	0
0	136	4	0
0	182	5	1
0	219	6	2
0	259	7	1
0	302	8	0
0	333	9	0
0	373	10	0
1	14	1	0
1	45	2	0
1	82	3	0
1	137	4	0
1	183	5	1
1	220	6	0
1	260	7	0
1	303	8	0
1	334	9	0
1	374	10	1
2	15	1	0
2	46	2	0
2	83	3	1
2	138	4	1
2	184	5	1
2	221	6	0
2	261	7	1
2	304	8	0
2	335	9	1
2	375	10	0
3	16	1	0
3	47	2	0
3	84	3	0
3	139	4	2
3	185	5	1
3	222	6	1
3	262	7	2
3	305	8	1
3	336	9	1
3	376	10	1

