version 2
run General-17-20200811-20:42:54-10952
attr configname General
attr datetime 20200811-20:42:54
attr experiment General
attr inifile omnetpp.ini
attr iterationvars ""
attr iterationvarsf ""
attr measurement ""
attr network fcnetwork
attr processid 10952
attr repetition 17
attr replication #17
attr resultdir results
attr runnumber 17
attr seedset 17

vector 0 fcnetwork.node1 CountEchos ETV
vector 1 fcnetwork.node2 CountEchos ETV
vector 2 fcnetwork.node3 CountEchos ETV
vector 3 fcnetwork.node4 CountEchos ETV
0	13	1	0
0	41	2	0
0	69	3	0
0	94	4	0
0	131	5	0
0	177	6	0
0	226	7	0
0	281	8	1
0	324	9	0
0	358	10	1
1	14	1	0
1	42	2	1
1	70	3	0
1	95	4	0
1	132	5	1
1	178	6	0
1	227	7	0
1	282	8	1
1	325	9	2
1	359	10	2
2	15	1	0
2	43	2	0
2	71	3	0
2	96	4	0
2	133	5	2
2	179	6	0
2	228	7	0
2	283	8	2
2	326	9	1
2	360	10	1
3	16	1	0
3	44	2	0
3	72	3	0
3	97	4	0
3	134	5	1
3	180	6	3
3	229	7	0
3	284	8	0
3	327	9	0
3	361	10	0

