version 2
run General-41-20200811-20:42:55-10952
attr configname General
attr datetime 20200811-20:42:55
attr experiment General
attr inifile omnetpp.ini
attr iterationvars ""
attr iterationvarsf ""
attr measurement ""
attr network fcnetwork
attr processid 10952
attr repetition 41
attr replication #41
attr resultdir results
attr runnumber 41
attr seedset 41

vector 0 fcnetwork.node1 CountEchos ETV
vector 1 fcnetwork.node2 CountEchos ETV
vector 2 fcnetwork.node3 CountEchos ETV
vector 3 fcnetwork.node4 CountEchos ETV
0	13	1	0
0	35	2	0
0	63	3	1
0	88	4	0
0	119	5	0
0	153	6	0
0	187	7	0
0	230	8	1
0	261	9	0
0	289	10	0
1	14	1	0
1	36	2	0
1	64	3	0
1	89	4	0
1	120	5	1
1	154	6	1
1	188	7	0
1	231	8	3
1	262	9	0
1	290	10	0
2	15	1	0
2	37	2	0
2	65	3	0
2	90	4	0
2	121	5	0
2	155	6	0
2	189	7	0
2	232	8	1
2	263	9	0
2	291	10	1
3	16	1	0
3	38	2	2
3	66	3	0
3	91	4	0
3	122	5	2
3	156	6	0
3	190	7	0
3	233	8	0
3	264	9	1
3	292	10	0

