version 2
run General-36-20200811-20:42:54-10952
attr configname General
attr datetime 20200811-20:42:54
attr experiment General
attr inifile omnetpp.ini
attr iterationvars ""
attr iterationvarsf ""
attr measurement ""
attr network fcnetwork
attr processid 10952
attr repetition 36
attr replication #36
attr resultdir results
attr runnumber 36
attr seedset 36

vector 0 fcnetwork.node1 CountEchos ETV
vector 1 fcnetwork.node2 CountEchos ETV
vector 2 fcnetwork.node3 CountEchos ETV
vector 3 fcnetwork.node4 CountEchos ETV
0	13	1	0
0	50	2	0
0	87	3	0
0	115	4	1
0	152	5	0
0	198	6	0
0	250	7	2
0	293	8	0
0	339	9	1
0	388	10	1
1	14	1	0
1	51	2	1
1	88	3	0
1	116	4	0
1	153	5	0
1	199	6	2
1	251	7	1
1	294	8	3
1	340	9	0
1	389	10	1
2	15	1	0
2	52	2	0
2	89	3	0
2	117	4	0
2	154	5	0
2	200	6	2
2	252	7	2
2	295	8	0
2	341	9	0
2	390	10	0
3	16	1	0
3	53	2	0
3	90	3	0
3	118	4	0
3	155	5	0
3	201	6	0
3	253	7	1
3	296	8	0
3	342	9	0
3	391	10	0

