version 2
run General-14-20200811-20:42:54-10952
attr configname General
attr datetime 20200811-20:42:54
attr experiment General
attr inifile omnetpp.ini
attr iterationvars ""
attr iterationvarsf ""
attr measurement ""
attr network fcnetwork
attr processid 10952
attr repetition 14
attr replication #14
attr resultdir results
attr runnumber 14
attr seedset 14

vector 0 fcnetwork.node1 CountEchos ETV
vector 1 fcnetwork.node2 CountEchos ETV
vector 2 fcnetwork.node3 CountEchos ETV
vector 3 fcnetwork.node4 CountEchos ETV
0	13	1	0
0	41	2	0
0	69	3	1
0	100	4	0
0	140	5	1
0	183	6	0
0	211	7	1
0	245	8	0
0	279	9	1
0	328	10	2
1	14	1	0
1	42	2	0
1	70	3	1
1	101	4	2
1	141	5	2
1	184	6	0
1	212	7	1
1	246	8	0
1	280	9	0
1	329	10	0
2	15	1	0
2	43	2	0
2	71	3	0
2	102	4	0
2	142	5	0
2	185	6	0
2	213	7	1
2	247	8	1
2	281	9	0
2	330	10	1
3	16	1	0
3	44	2	0
3	72	3	1
3	103	4	1
3	143	5	0
3	186	6	2
3	214	7	0
3	248	8	0
3	282	9	0
3	331	10	0

