version 2
run General-34-20200811-20:42:54-10952
attr configname General
attr datetime 20200811-20:42:54
attr experiment General
attr inifile omnetpp.ini
attr iterationvars ""
attr iterationvarsf ""
attr measurement ""
attr network fcnetwork
attr processid 10952
attr repetition 34
attr replication #34
attr resultdir results
attr runnumber 34
attr seedset 34

vector 0 fcnetwork.node1 CountEchos ETV
vector 1 fcnetwork.node2 CountEchos ETV
vector 2 fcnetwork.node3 CountEchos ETV
vector 3 fcnetwork.node4 CountEchos ETV
0	13	1	0
0	38	2	0
0	81	3	0
0	136	4	1
0	182	5	1
0	228	6	1
0	274	7	0
0	332	8	1
0	381	9	0
0	409	10	1
1	14	1	0
1	39	2	0
1	82	3	0
1	137	4	2
1	183	5	2
1	229	6	2
1	275	7	0
1	333	8	0
1	382	9	0
1	410	10	0
2	15	1	0
2	40	2	0
2	83	3	1
2	138	4	0
2	184	5	3
2	230	6	1
2	276	7	0
2	334	8	2
2	383	9	1
2	411	10	0
3	16	1	0
3	41	2	0
3	84	3	1
3	139	4	1
3	185	5	1
3	231	6	1
3	277	7	0
3	335	8	0
3	384	9	2
3	412	10	0

