version 2
run General-55-20200811-20:42:55-10952
attr configname General
attr datetime 20200811-20:42:55
attr experiment General
attr inifile omnetpp.ini
attr iterationvars ""
attr iterationvarsf ""
attr measurement ""
attr network fcnetwork
attr processid 10952
attr repetition 55
attr replication #55
attr resultdir results
attr runnumber 55
attr seedset 55

vector 0 fcnetwork.node1 CountEchos ETV
vector 1 fcnetwork.node2 CountEchos ETV
vector 2 fcnetwork.node3 CountEchos ETV
vector 3 fcnetwork.node4 CountEchos ETV
0	13	1	0
0	41	2	0
0	72	3	0
0	118	4	0
0	158	5	1
0	198	6	1
0	241	7	1
0	284	8	1
0	327	9	0
0	361	10	0
1	14	1	0
1	42	2	0
1	73	3	0
1	119	4	1
1	159	5	0
1	199	6	0
1	242	7	0
1	285	8	0
1	328	9	2
1	362	10	0
2	15	1	0
2	43	2	1
2	74	3	0
2	120	4	1
2	160	5	0
2	200	6	0
2	243	7	0
2	286	8	0
2	329	9	1
2	363	10	0
3	16	1	0
3	44	2	1
3	75	3	0
3	121	4	1
3	161	5	2
3	201	6	3
3	244	7	2
3	287	8	2
3	330	9	2
3	364	10	0

