version 2
run General-20-20200811-20:42:54-10952
attr configname General
attr datetime 20200811-20:42:54
attr experiment General
attr inifile omnetpp.ini
attr iterationvars ""
attr iterationvarsf ""
attr measurement ""
attr network fcnetwork
attr processid 10952
attr repetition 20
attr replication #20
attr resultdir results
attr runnumber 20
attr seedset 20

vector 0 fcnetwork.node1 CountEchos ETV
vector 1 fcnetwork.node2 CountEchos ETV
vector 2 fcnetwork.node3 CountEchos ETV
vector 3 fcnetwork.node4 CountEchos ETV
0	13	1	0
0	50	2	1
0	96	3	1
0	133	4	0
0	170	5	0
0	216	6	1
0	262	7	0
0	305	8	0
0	345	9	2
0	391	10	1
1	14	1	0
1	51	2	2
1	97	3	1
1	134	4	1
1	171	5	1
1	217	6	1
1	263	7	0
1	306	8	3
1	346	9	1
1	392	10	1
2	15	1	0
2	52	2	1
2	98	3	0
2	135	4	1
2	172	5	0
2	218	6	1
2	264	7	0
2	307	8	0
2	347	9	1
2	393	10	1
3	16	1	0
3	53	2	0
3	99	3	0
3	136	4	1
3	173	5	0
3	219	6	1
3	265	7	0
3	308	8	1
3	348	9	1
3	394	10	2

