version 2
run General-98-20200811-20:42:56-10952
attr configname General
attr datetime 20200811-20:42:56
attr experiment General
attr inifile omnetpp.ini
attr iterationvars ""
attr iterationvarsf ""
attr measurement ""
attr network fcnetwork
attr processid 10952
attr repetition 98
attr replication #98
attr resultdir results
attr runnumber 98
attr seedset 98

vector 0 fcnetwork.node1 CountEchos ETV
vector 1 fcnetwork.node2 CountEchos ETV
vector 2 fcnetwork.node3 CountEchos ETV
vector 3 fcnetwork.node4 CountEchos ETV
0	13	1	0
0	38	2	0
0	75	3	0
0	121	4	0
0	176	5	0
0	204	6	0
0	232	7	1
0	257	8	1
0	297	9	0
0	346	10	2
1	14	1	0
1	39	2	0
1	76	3	0
1	122	4	0
1	177	5	2
1	205	6	0
1	233	7	1
1	258	8	0
1	298	9	0
1	347	10	0
2	15	1	0
2	40	2	0
2	77	3	1
2	123	4	1
2	178	5	0
2	206	6	0
2	234	7	0
2	259	8	0
2	299	9	0
2	348	10	0
3	16	1	0
3	41	2	0
3	78	3	1
3	124	4	0
3	179	5	0
3	207	6	1
3	235	7	0
3	260	8	1
3	300	9	3
3	349	10	0

