version 2
run General-61-20200811-20:42:55-10952
attr configname General
attr datetime 20200811-20:42:55
attr experiment General
attr inifile omnetpp.ini
attr iterationvars ""
attr iterationvarsf ""
attr measurement ""
attr network fcnetwork
attr processid 10952
attr repetition 61
attr replication #61
attr resultdir results
attr runnumber 61
attr seedset 61

vector 0 fcnetwork.node1 CountEchos ETV
vector 1 fcnetwork.node2 CountEchos ETV
vector 2 fcnetwork.node3 CountEchos ETV
vector 3 fcnetwork.node4 CountEchos ETV
0	13	1	0
0	41	2	2
0	63	3	0
0	100	4	1
0	140	5	1
0	177	6	0
0	220	7	0
0	263	8	0
0	294	9	1
0	322	10	1
1	14	1	0
1	42	2	1
1	64	3	0
1	101	4	0
1	141	5	1
1	178	6	0
1	221	7	0
1	264	8	0
1	295	9	0
1	323	10	1
2	15	1	0
2	43	2	1
2	65	3	1
2	102	4	2
2	142	5	1
2	179	6	4
2	222	7	0
2	265	8	1
2	296	9	0
2	324	10	0
3	16	1	0
3	44	2	0
3	66	3	0
3	103	4	0
3	143	5	0
3	180	6	1
3	223	7	1
3	266	8	2
3	297	9	2
3	325	10	0

