version 2
run General-9-20200811-20:42:54-10952
attr configname General
attr datetime 20200811-20:42:54
attr experiment General
attr inifile omnetpp.ini
attr iterationvars ""
attr iterationvarsf ""
attr measurement ""
attr network fcnetwork
attr processid 10952
attr repetition 9
attr replication #9
attr resultdir results
attr runnumber 9
attr seedset 9

vector 0 fcnetwork.node1 CountEchos ETV
vector 1 fcnetwork.node2 CountEchos ETV
vector 2 fcnetwork.node3 CountEchos ETV
vector 3 fcnetwork.node4 CountEchos ETV
0	13	1	0
0	32	2	0
0	57	3	0
0	94	4	0
0	143	5	0
0	180	6	0
0	211	7	0
0	239	8	0
0	282	9	1
0	337	10	1
1	14	1	0
1	33	2	0
1	58	3	0
1	95	4	0
1	144	5	1
1	181	6	0
1	212	7	0
1	240	8	0
1	283	9	2
1	338	10	2
2	15	1	0
2	34	2	0
2	59	3	1
2	96	4	1
2	145	5	1
2	182	6	1
2	213	7	1
2	241	8	0
2	284	9	1
2	339	10	2
3	16	1	0
3	35	2	0
3	60	3	0
3	97	4	1
3	146	5	1
3	183	6	1
3	214	7	0
3	242	8	0
3	285	9	0
3	340	10	2

