version 2
run General-40-20200811-20:42:55-10952
attr configname General
attr datetime 20200811-20:42:55
attr experiment General
attr inifile omnetpp.ini
attr iterationvars ""
attr iterationvarsf ""
attr measurement ""
attr network fcnetwork
attr processid 10952
attr repetition 40
attr replication #40
attr resultdir results
attr runnumber 40
attr seedset 40

vector 0 fcnetwork.node1 CountEchos ETV
vector 1 fcnetwork.node2 CountEchos ETV
vector 2 fcnetwork.node3 CountEchos ETV
vector 3 fcnetwork.node4 CountEchos ETV
0	13	1	0
0	35	2	0
0	69	3	0
0	109	4	1
0	143	5	1
0	171	6	1
0	202	7	0
0	239	8	1
0	267	9	0
0	313	10	1
1	14	1	0
1	36	2	0
1	70	3	1
1	110	4	1
1	144	5	2
1	172	6	0
1	203	7	0
1	240	8	0
1	268	9	1
1	314	10	0
2	15	1	0
2	37	2	0
2	71	3	0
2	111	4	1
2	145	5	1
2	173	6	0
2	204	7	1
2	241	8	0
2	269	9	0
2	315	10	0
3	16	1	0
3	38	2	0
3	72	3	0
3	112	4	0
3	146	5	0
3	174	6	0
3	205	7	0
3	242	8	1
3	270	9	1
3	316	10	0

