version 2
run General-85-20200811-20:42:55-10952
attr configname General
attr datetime 20200811-20:42:55
attr experiment General
attr inifile omnetpp.ini
attr iterationvars ""
attr iterationvarsf ""
attr measurement ""
attr network fcnetwork
attr processid 10952
attr repetition 85
attr replication #85
attr resultdir results
attr runnumber 85
attr seedset 85

vector 0 fcnetwork.node1 CountEchos ETV
vector 1 fcnetwork.node2 CountEchos ETV
vector 2 fcnetwork.node3 CountEchos ETV
vector 3 fcnetwork.node4 CountEchos ETV
0	13	1	0
0	35	2	0
0	66	3	0
0	88	4	0
0	110	5	0
0	135	6	0
0	175	7	3
0	203	8	1
0	237	9	2
0	274	10	0
1	14	1	0
1	36	2	0
1	67	3	0
1	89	4	0
1	111	5	0
1	136	6	0
1	176	7	0
1	204	8	0
1	238	9	1
1	275	10	1
2	15	1	0
2	37	2	1
2	68	3	1
2	90	4	0
2	112	5	0
2	137	6	1
2	177	7	2
2	205	8	0
2	239	9	0
2	276	10	0
3	16	1	0
3	38	2	0
3	69	3	0
3	91	4	0
3	113	5	0
3	138	6	0
3	178	7	0
3	206	8	0
3	240	9	0
3	277	10	0

