version 2
run General-8-20200811-20:42:54-10952
attr configname General
attr datetime 20200811-20:42:54
attr experiment General
attr inifile omnetpp.ini
attr iterationvars ""
attr iterationvarsf ""
attr measurement ""
attr network fcnetwork
attr processid 10952
attr repetition 8
attr replication #8
attr resultdir results
attr runnumber 8
attr seedset 8

vector 0 fcnetwork.node1 CountEchos ETV
vector 1 fcnetwork.node2 CountEchos ETV
vector 2 fcnetwork.node3 CountEchos ETV
vector 3 fcnetwork.node4 CountEchos ETV
0	13	1	0
0	41	2	1
0	78	3	1
0	109	4	0
0	140	5	0
0	177	6	0
0	214	7	0
0	257	8	2
0	297	9	0
0	322	10	0
1	14	1	0
1	42	2	1
1	79	3	0
1	110	4	0
1	141	5	0
1	178	6	1
1	215	7	0
1	258	8	0
1	298	9	1
1	323	10	0
2	15	1	0
2	43	2	0
2	80	3	0
2	111	4	0
2	142	5	0
2	179	6	1
2	216	7	2
2	259	8	0
2	299	9	0
2	324	10	0
3	16	1	0
3	44	2	0
3	81	3	0
3	112	4	0
3	143	5	0
3	180	6	0
3	217	7	0
3	260	8	3
3	300	9	0
3	325	10	0

