version 2
run General-31-20200811-20:42:54-10952
attr configname General
attr datetime 20200811-20:42:54
attr experiment General
attr inifile omnetpp.ini
attr iterationvars ""
attr iterationvarsf ""
attr measurement ""
attr network fcnetwork
attr processid 10952
attr repetition 31
attr replication #31
attr resultdir results
attr runnumber 31
attr seedset 31

vector 0 fcnetwork.node1 CountEchos ETV
vector 1 fcnetwork.node2 CountEchos ETV
vector 2 fcnetwork.node3 CountEchos ETV
vector 3 fcnetwork.node4 CountEchos ETV
0	13	1	0
0	38	2	0
0	75	3	0
0	109	4	1
0	146	5	1
0	180	6	0
0	211	7	0
0	242	8	0
0	276	9	0
0	313	10	0
1	14	1	0
1	39	2	0
1	76	3	0
1	110	4	1
1	147	5	1
1	181	6	0
1	212	7	0
1	243	8	0
1	277	9	0
1	314	10	0
2	15	1	0
2	40	2	0
2	77	3	0
2	111	4	0
2	148	5	0
2	182	6	0
2	213	7	0
2	244	8	2
2	278	9	0
2	315	10	1
3	16	1	0
3	41	2	0
3	78	3	0
3	112	4	0
3	149	5	0
3	183	6	0
3	214	7	1
3	245	8	0
3	279	9	0
3	316	10	0

