version 2
run General-16-20200811-20:42:54-10952
attr configname General
attr datetime 20200811-20:42:54
attr experiment General
attr inifile omnetpp.ini
attr iterationvars ""
attr iterationvarsf ""
attr measurement ""
attr network fcnetwork
attr processid 10952
attr repetition 16
attr replication #16
attr resultdir results
attr runnumber 16
attr seedset 16

vector 0 fcnetwork.node1 CountEchos ETV
vector 1 fcnetwork.node2 CountEchos ETV
vector 2 fcnetwork.node3 CountEchos ETV
vector 3 fcnetwork.node4 CountEchos ETV
0	13	1	0
0	32	2	0
0	60	3	1
0	88	4	0
0	122	5	1
0	162	6	1
0	220	7	1
0	266	8	1
0	318	9	0
0	370	10	0
1	14	1	0
1	33	2	0
1	61	3	0
1	89	4	1
1	123	5	0
1	163	6	2
1	221	7	2
1	267	8	0
1	319	9	0
1	371	10	0
2	15	1	0
2	34	2	0
2	62	3	0
2	90	4	0
2	124	5	0
2	164	6	1
2	222	7	1
2	268	8	0
2	320	9	1
2	372	10	2
3	16	1	0
3	35	2	0
3	63	3	0
3	91	4	0
3	125	5	0
3	165	6	0
3	223	7	0
3	269	8	0
3	321	9	2
3	373	10	0

