version 2
run General-46-20200811-20:42:55-10952
attr configname General
attr datetime 20200811-20:42:55
attr experiment General
attr inifile omnetpp.ini
attr iterationvars ""
attr iterationvarsf ""
attr measurement ""
attr network fcnetwork
attr processid 10952
attr repetition 46
attr replication #46
attr resultdir results
attr runnumber 46
attr seedset 46

vector 0 fcnetwork.node1 CountEchos ETV
vector 1 fcnetwork.node2 CountEchos ETV
vector 2 fcnetwork.node3 CountEchos ETV
vector 3 fcnetwork.node4 CountEchos ETV
0	13	1	0
0	47	2	0
0	81	3	0
0	115	4	0
0	155	5	0
0	183	6	0
0	214	7	0
0	239	8	1
0	273	9	1
0	304	10	0
1	14	1	0
1	48	2	0
1	82	3	0
1	116	4	0
1	156	5	0
1	184	6	0
1	215	7	2
1	240	8	0
1	274	9	0
1	305	10	1
2	15	1	0
2	49	2	0
2	83	3	0
2	117	4	1
2	157	5	0
2	185	6	2
2	216	7	1
2	241	8	0
2	275	9	1
2	306	10	1
3	16	1	0
3	50	2	1
3	84	3	0
3	118	4	1
3	158	5	2
3	186	6	0
3	217	7	1
3	242	8	0
3	276	9	0
3	307	10	0

