version 2
run General-69-20200811-20:42:55-10952
attr configname General
attr datetime 20200811-20:42:55
attr experiment General
attr inifile omnetpp.ini
attr iterationvars ""
attr iterationvarsf ""
attr measurement ""
attr network fcnetwork
attr processid 10952
attr repetition 69
attr replication #69
attr resultdir results
attr runnumber 69
attr seedset 69

vector 0 fcnetwork.node1 CountEchos ETV
vector 1 fcnetwork.node2 CountEchos ETV
vector 2 fcnetwork.node3 CountEchos ETV
vector 3 fcnetwork.node4 CountEchos ETV
0	13	1	0
0	38	2	0
0	66	3	0
0	91	4	0
0	119	5	0
0	147	6	1
0	175	7	1
0	212	8	0
0	249	9	0
0	289	10	1
1	14	1	0
1	39	2	0
1	67	3	0
1	92	4	0
1	120	5	0
1	148	6	0
1	176	7	0
1	213	8	0
1	250	9	0
1	290	10	1
2	15	1	0
2	40	2	0
2	68	3	0
2	93	4	0
2	121	5	0
2	149	6	0
2	177	7	0
2	214	8	0
2	251	9	1
2	291	10	1
3	16	1	0
3	41	2	0
3	69	3	0
3	94	4	0
3	122	5	0
3	150	6	0
3	178	7	0
3	215	8	0
3	252	9	0
3	292	10	0

