version 2
run General-59-20200811-20:42:55-10952
attr configname General
attr datetime 20200811-20:42:55
attr experiment General
attr inifile omnetpp.ini
attr iterationvars ""
attr iterationvarsf ""
attr measurement ""
attr network fcnetwork
attr processid 10952
attr repetition 59
attr replication #59
attr resultdir results
attr runnumber 59
attr seedset 59

vector 0 fcnetwork.node1 CountEchos ETV
vector 1 fcnetwork.node2 CountEchos ETV
vector 2 fcnetwork.node3 CountEchos ETV
vector 3 fcnetwork.node4 CountEchos ETV
0	13	1	0
0	44	2	0
0	75	3	0
0	115	4	0
0	158	5	0
0	204	6	0
0	253	7	0
0	299	8	0
0	348	9	1
0	391	10	0
1	14	1	0
1	45	2	0
1	76	3	0
1	116	4	0
1	159	5	0
1	205	6	0
1	254	7	0
1	300	8	1
1	349	9	1
1	392	10	0
2	15	1	0
2	46	2	0
2	77	3	0
2	117	4	2
2	160	5	1
2	206	6	1
2	255	7	2
2	301	8	3
2	350	9	1
2	393	10	1
3	16	1	0
3	47	2	0
3	78	3	1
3	118	4	0
3	161	5	2
3	207	6	2
3	256	7	0
3	302	8	0
3	351	9	1
3	394	10	3

