version 2
run General-26-20200811-20:42:54-10952
attr configname General
attr datetime 20200811-20:42:54
attr experiment General
attr inifile omnetpp.ini
attr iterationvars ""
attr iterationvarsf ""
attr measurement ""
attr network fcnetwork
attr processid 10952
attr repetition 26
attr replication #26
attr resultdir results
attr runnumber 26
attr seedset 26

vector 0 fcnetwork.node1 CountEchos ETV
vector 1 fcnetwork.node2 CountEchos ETV
vector 2 fcnetwork.node3 CountEchos ETV
vector 3 fcnetwork.node4 CountEchos ETV
0	13	1	0
0	41	2	0
0	75	3	1
0	124	4	0
0	176	5	0
0	219	6	0
0	253	7	0
0	281	8	1
0	324	9	0
0	358	10	0
1	14	1	0
1	42	2	1
1	76	3	1
1	125	4	1
1	177	5	0
1	220	6	0
1	254	7	0
1	282	8	0
1	325	9	0
1	359	10	0
2	15	1	0
2	43	2	0
2	77	3	0
2	126	4	1
2	178	5	1
2	221	6	1
2	255	7	0
2	283	8	1
2	326	9	1
2	360	10	1
3	16	1	0
3	44	2	0
3	78	3	1
3	127	4	2
3	179	5	1
3	222	6	1
3	256	7	0
3	284	8	1
3	327	9	0
3	361	10	0

