version 2
run General-94-20200811-20:42:56-10952
attr configname General
attr datetime 20200811-20:42:56
attr experiment General
attr inifile omnetpp.ini
attr iterationvars ""
attr iterationvarsf ""
attr measurement ""
attr network fcnetwork
attr processid 10952
attr repetition 94
attr replication #94
attr resultdir results
attr runnumber 94
attr seedset 94

vector 0 fcnetwork.node1 CountEchos ETV
vector 1 fcnetwork.node2 CountEchos ETV
vector 2 fcnetwork.node3 CountEchos ETV
vector 3 fcnetwork.node4 CountEchos ETV
0	13	1	0
0	35	2	1
0	69	3	0
0	115	4	1
0	152	5	0
0	183	6	0
0	232	7	2
0	275	8	0
0	318	9	1
0	373	10	2
1	14	1	0
1	36	2	0
1	70	3	0
1	116	4	1
1	153	5	1
1	184	6	0
1	233	7	0
1	276	8	0
1	319	9	0
1	374	10	0
2	15	1	0
2	37	2	0
2	71	3	0
2	117	4	2
2	154	5	2
2	185	6	0
2	234	7	1
2	277	8	2
2	320	9	1
2	375	10	2
3	16	1	0
3	38	2	0
3	72	3	0
3	118	4	0
3	155	5	1
3	186	6	2
3	235	7	0
3	278	8	0
3	321	9	1
3	376	10	0

