version 2
run General-96-20200811-20:42:56-10952
attr configname General
attr datetime 20200811-20:42:56
attr experiment General
attr inifile omnetpp.ini
attr iterationvars ""
attr iterationvarsf ""
attr measurement ""
attr network fcnetwork
attr processid 10952
attr repetition 96
attr replication #96
attr resultdir results
attr runnumber 96
attr seedset 96

vector 0 fcnetwork.node1 CountEchos ETV
vector 1 fcnetwork.node2 CountEchos ETV
vector 2 fcnetwork.node3 CountEchos ETV
vector 3 fcnetwork.node4 CountEchos ETV
0	13	1	0
0	47	2	0
0	87	3	0
0	124	4	1
0	170	5	0
0	210	6	0
0	259	7	0
0	311	8	0
0	357	9	1
0	397	10	0
1	14	1	0
1	48	2	0
1	88	3	1
1	125	4	0
1	171	5	1
1	211	6	0
1	260	7	0
1	312	8	2
1	358	9	1
1	398	10	1
2	15	1	0
2	49	2	0
2	89	3	2
2	126	4	1
2	172	5	2
2	212	6	1
2	261	7	0
2	313	8	0
2	359	9	0
2	399	10	1
3	16	1	0
3	50	2	0
3	90	3	0
3	127	4	0
3	173	5	0
3	213	6	0
3	262	7	2
3	314	8	1
3	360	9	0
3	400	10	0

