version 2
run General-87-20200811-20:42:55-10952
attr configname General
attr datetime 20200811-20:42:55
attr experiment General
attr inifile omnetpp.ini
attr iterationvars ""
attr iterationvarsf ""
attr measurement ""
attr network fcnetwork
attr processid 10952
attr repetition 87
attr replication #87
attr resultdir results
attr runnumber 87
attr seedset 87

vector 0 fcnetwork.node1 CountEchos ETV
vector 1 fcnetwork.node2 CountEchos ETV
vector 2 fcnetwork.node3 CountEchos ETV
vector 3 fcnetwork.node4 CountEchos ETV
0	13	1	0
0	44	2	0
0	78	3	0
0	115	4	0
0	149	5	0
0	180	6	0
0	205	7	0
0	245	8	0
0	285	9	0
0	334	10	0
1	14	1	0
1	45	2	0
1	79	3	1
1	116	4	0
1	150	5	0
1	181	6	0
1	206	7	0
1	246	8	0
1	286	9	0
1	335	10	1
2	15	1	0
2	46	2	0
2	80	3	0
2	117	4	1
2	151	5	0
2	182	6	0
2	207	7	1
2	247	8	3
2	287	9	1
2	336	10	2
3	16	1	0
3	47	2	0
3	81	3	0
3	118	4	2
3	152	5	1
3	183	6	2
3	208	7	0
3	248	8	0
3	288	9	1
3	337	10	1

