version 2
run General-15-20200811-20:42:54-10952
attr configname General
attr datetime 20200811-20:42:54
attr experiment General
attr inifile omnetpp.ini
attr iterationvars ""
attr iterationvarsf ""
attr measurement ""
attr network fcnetwork
attr processid 10952
attr repetition 15
attr replication #15
attr resultdir results
attr runnumber 15
attr seedset 15

vector 0 fcnetwork.node1 CountEchos ETV
vector 1 fcnetwork.node2 CountEchos ETV
vector 2 fcnetwork.node3 CountEchos ETV
vector 3 fcnetwork.node4 CountEchos ETV
0	13	1	0
0	41	2	1
0	87	3	1
0	121	4	0
0	155	5	0
0	180	6	0
0	217	7	1
0	248	8	0
0	285	9	0
0	322	10	2
1	14	1	0
1	42	2	0
1	88	3	0
1	122	4	0
1	156	5	1
1	181	6	0
1	218	7	0
1	249	8	0
1	286	9	0
1	323	10	0
2	15	1	0
2	43	2	0
2	89	3	1
2	123	4	0
2	157	5	2
2	182	6	0
2	219	7	0
2	250	8	0
2	287	9	1
2	324	10	0
3	16	1	0
3	44	2	0
3	90	3	1
3	124	4	0
3	158	5	1
3	183	6	0
3	220	7	0
3	251	8	2
3	288	9	0
3	325	10	0

