version 2
run General-35-20200811-20:42:54-10952
attr configname General
attr datetime 20200811-20:42:54
attr experiment General
attr inifile omnetpp.ini
attr iterationvars ""
attr iterationvarsf ""
attr measurement ""
attr network fcnetwork
attr processid 10952
attr repetition 35
attr replication #35
attr resultdir results
attr runnumber 35
attr seedset 35

vector 0 fcnetwork.node1 CountEchos ETV
vector 1 fcnetwork.node2 CountEchos ETV
vector 2 fcnetwork.node3 CountEchos ETV
vector 3 fcnetwork.node4 CountEchos ETV
0	13	1	0
0	32	2	0
0	66	3	1
0	115	4	0
0	161	5	0
0	204	6	0
0	235	7	0
0	275	8	1
0	315	9	0
0	355	10	0
1	14	1	0
1	33	2	0
1	67	3	0
1	116	4	1
1	162	5	1
1	205	6	2
1	236	7	0
1	276	8	1
1	316	9	0
1	356	10	1
2	15	1	0
2	34	2	0
2	68	3	0
2	117	4	1
2	163	5	1
2	206	6	0
2	237	7	0
2	277	8	0
2	317	9	0
2	357	10	1
3	16	1	0
3	35	2	0
3	69	3	1
3	118	4	1
3	164	5	1
3	207	6	1
3	238	7	0
3	278	8	1
3	318	9	1
3	358	10	1

