version 2
run General-49-20200811-20:42:55-10952
attr configname General
attr datetime 20200811-20:42:55
attr experiment General
attr inifile omnetpp.ini
attr iterationvars ""
attr iterationvarsf ""
attr measurement ""
attr network fcnetwork
attr processid 10952
attr repetition 49
attr replication #49
attr resultdir results
attr runnumber 49
attr seedset 49

vector 0 fcnetwork.node1 CountEchos ETV
vector 1 fcnetwork.node2 CountEchos ETV
vector 2 fcnetwork.node3 CountEchos ETV
vector 3 fcnetwork.node4 CountEchos ETV
0	13	1	0
0	41	2	0
0	78	3	0
0	124	4	1
0	179	5	1
0	231	6	1
0	277	7	2
0	311	8	0
0	345	9	0
0	382	10	0
1	14	1	0
1	42	2	1
1	79	3	2
1	125	4	0
1	180	5	2
1	232	6	0
1	278	7	1
1	312	8	0
1	346	9	1
1	383	10	0
2	15	1	0
2	43	2	1
2	80	3	1
2	126	4	1
2	181	5	1
2	233	6	0
2	279	7	2
2	313	8	1
2	347	9	0
2	384	10	1
3	16	1	0
3	44	2	0
3	81	3	0
3	127	4	1
3	182	5	1
3	234	6	0
3	280	7	1
3	314	8	1
3	348	9	1
3	385	10	1

