version 2
run General-66-20200811-20:42:55-10952
attr configname General
attr datetime 20200811-20:42:55
attr experiment General
attr inifile omnetpp.ini
attr iterationvars ""
attr iterationvarsf ""
attr measurement ""
attr network fcnetwork
attr processid 10952
attr repetition 66
attr replication #66
attr resultdir results
attr runnumber 66
attr seedset 66

vector 0 fcnetwork.node1 CountEchos ETV
vector 1 fcnetwork.node2 CountEchos ETV
vector 2 fcnetwork.node3 CountEchos ETV
vector 3 fcnetwork.node4 CountEchos ETV
0	13	1	0
0	35	2	0
0	57	3	0
0	88	4	0
0	110	5	0
0	135	6	0
0	166	7	0
0	194	8	0
0	234	9	0
0	271	10	0
1	14	1	0
1	36	2	0
1	58	3	0
1	89	4	1
1	111	5	0
1	136	6	0
1	167	7	0
1	195	8	0
1	235	9	0
1	272	10	1
2	15	1	0
2	37	2	0
2	59	3	0
2	90	4	0
2	112	5	0
2	137	6	1
2	168	7	0
2	196	8	0
2	236	9	0
2	273	10	1
3	16	1	0
3	38	2	1
3	60	3	0
3	91	4	0
3	113	5	0
3	138	6	0
3	169	7	0
3	197	8	0
3	237	9	2
3	274	10	0

