version 2
run General-74-20200811-20:42:55-10952
attr configname General
attr datetime 20200811-20:42:55
attr experiment General
attr inifile omnetpp.ini
attr iterationvars ""
attr iterationvarsf ""
attr measurement ""
attr network fcnetwork
attr processid 10952
attr repetition 74
attr replication #74
attr resultdir results
attr runnumber 74
attr seedset 74

vector 0 fcnetwork.node1 CountEchos ETV
vector 1 fcnetwork.node2 CountEchos ETV
vector 2 fcnetwork.node3 CountEchos ETV
vector 3 fcnetwork.node4 CountEchos ETV
0	13	1	0
0	44	2	0
0	87	3	1
0	127	4	0
0	188	5	1
0	225	6	0
0	271	7	0
0	329	8	0
0	384	9	1
0	439	10	1
1	14	1	0
1	45	2	1
1	88	3	2
1	128	4	0
1	189	5	4
1	226	6	1
1	272	7	1
1	330	8	2
1	385	9	1
1	440	10	2
2	15	1	0
2	46	2	0
2	89	3	0
2	129	4	0
2	190	5	0
2	227	6	0
2	273	7	1
2	331	8	1
2	386	9	0
2	441	10	1
3	16	1	0
3	47	2	0
3	90	3	0
3	130	4	0
3	191	5	0
3	228	6	0
3	274	7	2
3	332	8	2
3	387	9	0
3	442	10	0

