version 2
run General-88-20200811-20:42:55-10952
attr configname General
attr datetime 20200811-20:42:55
attr experiment General
attr inifile omnetpp.ini
attr iterationvars ""
attr iterationvarsf ""
attr measurement ""
attr network fcnetwork
attr processid 10952
attr repetition 88
attr replication #88
attr resultdir results
attr runnumber 88
attr seedset 88

vector 0 fcnetwork.node1 CountEchos ETV
vector 1 fcnetwork.node2 CountEchos ETV
vector 2 fcnetwork.node3 CountEchos ETV
vector 3 fcnetwork.node4 CountEchos ETV
0	13	1	0
0	41	2	0
0	75	3	0
0	115	4	2
0	146	5	0
0	174	6	1
0	214	7	1
0	254	8	2
0	288	9	1
0	310	10	1
1	14	1	0
1	42	2	1
1	76	3	0
1	116	4	0
1	147	5	0
1	175	6	0
1	215	7	3
1	255	8	0
1	289	9	1
1	311	10	0
2	15	1	0
2	43	2	0
2	77	3	2
2	117	4	1
2	148	5	0
2	176	6	1
2	216	7	2
2	256	8	0
2	290	9	1
2	312	10	0
3	16	1	0
3	44	2	0
3	78	3	0
3	118	4	0
3	149	5	1
3	177	6	0
3	217	7	0
3	257	8	0
3	291	9	1
3	313	10	0

