version 2
run General-63-20200811-20:42:55-10952
attr configname General
attr datetime 20200811-20:42:55
attr experiment General
attr inifile omnetpp.ini
attr iterationvars ""
attr iterationvarsf ""
attr measurement ""
attr network fcnetwork
attr processid 10952
attr repetition 63
attr replication #63
attr resultdir results
attr runnumber 63
attr seedset 63

vector 0 fcnetwork.node1 CountEchos ETV
vector 1 fcnetwork.node2 CountEchos ETV
vector 2 fcnetwork.node3 CountEchos ETV
vector 3 fcnetwork.node4 CountEchos ETV
0	13	1	0
0	38	2	0
0	75	3	0
0	127	4	0
0	182	5	1
0	249	6	2
0	280	7	1
0	314	8	1
0	339	9	0
0	373	10	0
1	14	1	0
1	39	2	0
1	76	3	2
1	128	4	1
1	183	5	1
1	250	6	1
1	281	7	0
1	315	8	0
1	340	9	0
1	374	10	0
2	15	1	0
2	40	2	0
2	77	3	0
2	129	4	1
2	184	5	1
2	251	6	2
2	282	7	0
2	316	8	1
2	341	9	0
2	375	10	1
3	16	1	0
3	41	2	0
3	78	3	1
3	130	4	1
3	185	5	1
3	252	6	0
3	283	7	0
3	317	8	0
3	342	9	0
3	376	10	0

