version 2
run General-54-20200811-20:42:55-10952
attr configname General
attr datetime 20200811-20:42:55
attr experiment General
attr inifile omnetpp.ini
attr iterationvars ""
attr iterationvarsf ""
attr measurement ""
attr network fcnetwork
attr processid 10952
attr repetition 54
attr replication #54
attr resultdir results
attr runnumber 54
attr seedset 54

vector 0 fcnetwork.node1 CountEchos ETV
vector 1 fcnetwork.node2 CountEchos ETV
vector 2 fcnetwork.node3 CountEchos ETV
vector 3 fcnetwork.node4 CountEchos ETV
0	13	1	0
0	35	2	0
0	63	3	0
0	88	4	0
0	122	5	0
0	165	6	0
0	220	7	1
0	272	8	0
0	315	9	1
0	367	10	1
1	14	1	0
1	36	2	1
1	64	3	1
1	89	4	2
1	123	5	1
1	166	6	1
1	221	7	1
1	273	8	1
1	316	9	0
1	368	10	1
2	15	1	0
2	37	2	0
2	65	3	1
2	90	4	0
2	124	5	0
2	167	6	0
2	222	7	1
2	274	8	1
2	317	9	0
2	369	10	0
3	16	1	0
3	38	2	0
3	66	3	0
3	91	4	0
3	125	5	0
3	168	6	0
3	223	7	2
3	275	8	0
3	318	9	2
3	370	10	1

