version 2
run General-13-20200811-20:42:54-10952
attr configname General
attr datetime 20200811-20:42:54
attr experiment General
attr inifile omnetpp.ini
attr iterationvars ""
attr iterationvarsf ""
attr measurement ""
attr network fcnetwork
attr processid 10952
attr repetition 13
attr replication #13
attr resultdir results
attr runnumber 13
attr seedset 13

vector 0 fcnetwork.node1 CountEchos ETV
vector 1 fcnetwork.node2 CountEchos ETV
vector 2 fcnetwork.node3 CountEchos ETV
vector 3 fcnetwork.node4 CountEchos ETV
0	13	1	0
0	53	2	0
0	90	3	0
0	121	4	0
0	143	5	0
0	171	6	0
0	205	7	1
0	239	8	0
0	282	9	0
0	316	10	0
1	14	1	0
1	54	2	2
1	91	3	1
1	122	4	1
1	144	5	0
1	172	6	0
1	206	7	0
1	240	8	0
1	283	9	1
1	317	10	1
2	15	1	0
2	55	2	1
2	92	3	1
2	123	4	0
2	145	5	0
2	173	6	0
2	207	7	1
2	241	8	1
2	284	9	0
2	318	10	0
3	16	1	0
3	56	2	1
3	93	3	0
3	124	4	0
3	146	5	0
3	174	6	1
3	208	7	0
3	242	8	0
3	285	9	1
3	319	10	0

