version 2
run General-5-20200811-20:42:53-10952
attr configname General
attr datetime 20200811-20:42:53
attr experiment General
attr inifile omnetpp.ini
attr iterationvars ""
attr iterationvarsf ""
attr measurement ""
attr network fcnetwork
attr processid 10952
attr repetition 5
attr replication #5
attr resultdir results
attr runnumber 5
attr seedset 5

vector 0 fcnetwork.node1 CountEchos ETV
vector 1 fcnetwork.node2 CountEchos ETV
vector 2 fcnetwork.node3 CountEchos ETV
vector 3 fcnetwork.node4 CountEchos ETV
0	13	1	0
0	41	2	0
0	78	3	0
0	121	4	0
0	161	5	0
0	207	6	0
0	247	7	1
0	296	8	2
0	339	9	3
0	391	10	1
1	14	1	0
1	42	2	0
1	79	3	0
1	122	4	2
1	162	5	2
1	208	6	2
1	248	7	0
1	297	8	0
1	340	9	0
1	392	10	1
2	15	1	0
2	43	2	1
2	80	3	0
2	123	4	1
2	163	5	0
2	209	6	0
2	249	7	1
2	298	8	3
2	341	9	0
2	393	10	0
3	16	1	0
3	44	2	0
3	81	3	1
3	124	4	0
3	164	5	0
3	210	6	2
3	250	7	1
3	299	8	0
3	342	9	1
3	394	10	0

