version 2
run General-86-20200811-20:42:55-10952
attr configname General
attr datetime 20200811-20:42:55
attr experiment General
attr inifile omnetpp.ini
attr iterationvars ""
attr iterationvarsf ""
attr measurement ""
attr network fcnetwork
attr processid 10952
attr repetition 86
attr replication #86
attr resultdir results
attr runnumber 86
attr seedset 86

vector 0 fcnetwork.node1 CountEchos ETV
vector 1 fcnetwork.node2 CountEchos ETV
vector 2 fcnetwork.node3 CountEchos ETV
vector 3 fcnetwork.node4 CountEchos ETV
0	13	1	0
0	44	2	0
0	87	3	1
0	133	4	1
0	182	5	0
0	225	6	1
0	262	7	0
0	302	8	0
0	339	9	0
0	385	10	0
1	14	1	0
1	45	2	1
1	88	3	1
1	134	4	1
1	183	5	1
1	226	6	1
1	263	7	2
1	303	8	1
1	340	9	0
1	386	10	0
2	15	1	0
2	46	2	1
2	89	3	0
2	135	4	1
2	184	5	1
2	227	6	0
2	264	7	0
2	304	8	1
2	341	9	1
2	387	10	1
3	16	1	0
3	47	2	0
3	90	3	1
3	136	4	1
3	185	5	3
3	228	6	1
3	265	7	0
3	305	8	1
3	342	9	0
3	388	10	3

