version 2
run General-62-20200811-20:42:55-10952
attr configname General
attr datetime 20200811-20:42:55
attr experiment General
attr inifile omnetpp.ini
attr iterationvars ""
attr iterationvarsf ""
attr measurement ""
attr network fcnetwork
attr processid 10952
attr repetition 62
attr replication #62
attr resultdir results
attr runnumber 62
attr seedset 62

vector 0 fcnetwork.node1 CountEchos ETV
vector 1 fcnetwork.node2 CountEchos ETV
vector 2 fcnetwork.node3 CountEchos ETV
vector 3 fcnetwork.node4 CountEchos ETV
0	13	1	0
0	38	2	0
0	72	3	0
0	109	4	0
0	146	5	0
0	186	6	0
0	223	7	1
0	272	8	2
0	321	9	0
0	370	10	0
1	14	1	0
1	39	2	0
1	73	3	1
1	110	4	0
1	147	5	0
1	187	6	2
1	224	7	0
1	273	8	1
1	322	9	0
1	371	10	2
2	15	1	0
2	40	2	0
2	74	3	0
2	111	4	0
2	148	5	1
2	188	6	1
2	225	7	1
2	274	8	0
2	323	9	0
2	372	10	1
3	16	1	0
3	41	2	0
3	75	3	0
3	112	4	1
3	149	5	1
3	189	6	0
3	226	7	0
3	275	8	2
3	324	9	0
3	373	10	1

