version 2
run General-24-20200811-20:42:54-10952
attr configname General
attr datetime 20200811-20:42:54
attr experiment General
attr inifile omnetpp.ini
attr iterationvars ""
attr iterationvarsf ""
attr measurement ""
attr network fcnetwork
attr processid 10952
attr repetition 24
attr replication #24
attr resultdir results
attr runnumber 24
attr seedset 24

vector 0 fcnetwork.node1 CountEchos ETV
vector 1 fcnetwork.node2 CountEchos ETV
vector 2 fcnetwork.node3 CountEchos ETV
vector 3 fcnetwork.node4 CountEchos ETV
0	13	1	0
0	44	2	1
0	75	3	0
0	118	4	0
0	155	5	0
0	189	6	0
0	232	7	0
0	275	8	0
0	306	9	2
0	340	10	2
1	14	1	0
1	45	2	0
1	76	3	0
1	119	4	1
1	156	5	0
1	190	6	2
1	233	7	0
1	276	8	0
1	307	9	1
1	341	10	2
2	15	1	0
2	46	2	0
2	77	3	0
2	120	4	0
2	157	5	0
2	191	6	0
2	234	7	0
2	277	8	0
2	308	9	0
2	342	10	0
3	16	1	0
3	47	2	1
3	78	3	2
3	121	4	3
3	158	5	1
3	192	6	1
3	235	7	0
3	278	8	1
3	309	9	0
3	343	10	0

