version 2
run General-53-20200811-20:42:55-10952
attr configname General
attr datetime 20200811-20:42:55
attr experiment General
attr inifile omnetpp.ini
attr iterationvars ""
attr iterationvarsf ""
attr measurement ""
attr network fcnetwork
attr processid 10952
attr repetition 53
attr replication #53
attr resultdir results
attr runnumber 53
attr seedset 53

vector 0 fcnetwork.node1 CountEchos ETV
vector 1 fcnetwork.node2 CountEchos ETV
vector 2 fcnetwork.node3 CountEchos ETV
vector 3 fcnetwork.node4 CountEchos ETV
0	13	1	0
0	41	2	1
0	75	3	0
0	115	4	0
0	167	5	0
0	222	6	3
0	274	7	1
0	311	8	0
0	354	9	0
0	385	10	0
1	14	1	0
1	42	2	1
1	76	3	0
1	116	4	2
1	168	5	1
1	223	6	0
1	275	7	0
1	312	8	0
1	355	9	1
1	386	10	0
2	15	1	0
2	43	2	0
2	77	3	0
2	117	4	0
2	169	5	0
2	224	6	1
2	276	7	2
2	313	8	0
2	356	9	1
2	387	10	0
3	16	1	0
3	44	2	0
3	78	3	2
3	118	4	0
3	170	5	1
3	225	6	0
3	277	7	0
3	314	8	0
3	357	9	1
3	388	10	1

