version 2
run General-47-20200811-20:42:55-10952
attr configname General
attr datetime 20200811-20:42:55
attr experiment General
attr inifile omnetpp.ini
attr iterationvars ""
attr iterationvarsf ""
attr measurement ""
attr network fcnetwork
attr processid 10952
attr repetition 47
attr replication #47
attr resultdir results
attr runnumber 47
attr seedset 47

vector 0 fcnetwork.node1 CountEchos ETV
vector 1 fcnetwork.node2 CountEchos ETV
vector 2 fcnetwork.node3 CountEchos ETV
vector 3 fcnetwork.node4 CountEchos ETV
0	13	1	0
0	56	2	0
0	99	3	0
0	139	4	0
0	179	5	0
0	222	6	0
0	262	7	2
0	299	8	0
0	330	9	0
0	379	10	0
1	14	1	0
1	57	2	0
1	100	3	1
1	140	4	1
1	180	5	1
1	223	6	0
1	263	7	1
1	300	8	1
1	331	9	1
1	380	10	0
2	15	1	0
2	58	2	0
2	101	3	1
2	141	4	1
2	181	5	0
2	224	6	0
2	264	7	0
2	301	8	0
2	332	9	1
2	381	10	0
3	16	1	0
3	59	2	2
3	102	3	1
3	142	4	1
3	182	5	3
3	225	6	0
3	265	7	1
3	302	8	0
3	333	9	0
3	382	10	0

