version 2
run General-70-20200811-20:42:55-10952
attr configname General
attr datetime 20200811-20:42:55
attr experiment General
attr inifile omnetpp.ini
attr iterationvars ""
attr iterationvarsf ""
attr measurement ""
attr network fcnetwork
attr processid 10952
attr repetition 70
attr replication #70
attr resultdir results
attr runnumber 70
attr seedset 70

vector 0 fcnetwork.node1 CountEchos ETV
vector 1 fcnetwork.node2 CountEchos ETV
vector 2 fcnetwork.node3 CountEchos ETV
vector 3 fcnetwork.node4 CountEchos ETV
0	13	1	0
0	41	2	1
0	60	3	0
0	91	4	0
0	125	5	0
0	162	6	0
0	208	7	1
0	257	8	1
0	306	9	0
0	346	10	1
1	14	1	0
1	42	2	0
1	61	3	0
1	92	4	0
1	126	5	1
1	163	6	0
1	209	7	1
1	258	8	2
1	307	9	1
1	347	10	0
2	15	1	0
2	43	2	0
2	62	3	0
2	93	4	0
2	127	5	0
2	164	6	1
2	210	7	0
2	259	8	0
2	308	9	1
2	348	10	1
3	16	1	0
3	44	2	0
3	63	3	0
3	94	4	0
3	128	5	0
3	165	6	0
3	211	7	0
3	260	8	1
3	309	9	2
3	349	10	1

