version 2
run General-68-20200811-21:01:33-15184
attr configname General
attr datetime 20200811-21:01:33
attr experiment General
attr inifile omnetpp.ini
attr iterationvars ""
attr iterationvarsf ""
attr measurement ""
attr network fcnetwork
attr processid 15184
attr repetition 68
attr replication #68
attr resultdir results
attr runnumber 68
attr seedset 6

vector 0 fcnetwork.node1 CountEchos ETV
vector 1 fcnetwork.node2 CountEchos ETV
vector 2 fcnetwork.node3 CountEchos ETV
vector 3 fcnetwork.node4 CountEchos ETV
0	13	1	0
0	65	2	3
0	189	3	9
0	457	4	21
0	1013	5	45
0	1569	6	45
0	2125	7	45
0	2681	8	45
0	3237	9	45
0	3793	10	45
1	14	1	0
1	66	2	3
1	190	3	9
1	458	4	21
1	1014	5	45
1	1570	6	45
1	2126	7	45
1	2682	8	45
1	3238	9	45
1	3794	10	45
2	15	1	0
2	67	2	3
2	191	3	9
2	459	4	21
2	1015	5	45
2	1571	6	45
2	2127	7	45
2	2683	8	45
2	3239	9	45
2	3795	10	45
3	16	1	0
3	68	2	3
3	192	3	9
3	460	4	21
3	1016	5	45
3	1572	6	45
3	2128	7	45
3	2684	8	45
3	3240	9	45
3	3796	10	45

